LAMMPS data file via write_data, version 10 Sep 2025, timestep = 1000, units = lj

1150 atoms
2 atom types

-20 20 xlo xhi
-20 20 ylo yhi
-20 20 zlo zhi

Masses

1 1
2 10

Pair Coeffs # lj/cut/omp

1 1 1
2 0.5 3

Atoms # atomic

785 1 -9.149339398736066 -19.46927911954823 -19.11278141252917 0 0 0
618 1 -8.485758848667933 -19.538816885876365 -18.21289444386518 0 0 0
348 1 -7.465415674163305 -19.87215861067421 -18.532955792963254 0 0 0
377 1 -8.065420949345182 -19.20057037409822 -19.199083879549473 0 0 0
551 1 17.783684541712944 -18.839720356625865 -16.708941098675268 0 0 0
484 1 -17.209083693390777 -16.925086251956937 -17.867185572886683 0 0 0
765 1 -3.8460819954393295 -14.383400536587853 -17.98590110546763 0 0 0
836 1 -2.9841652370814504 -14.109514625664032 -17.328371975165297 0 0 0
176 1 13.860093048477017 -17.40524589066348 -17.555573074588516 0 0 0
723 1 -8.644882094791637 -14.679658741955555 -18.49928382767863 0 0 0
908 1 -1.5547521151096817 -12.662255743704742 -17.64215564500555 0 0 0
629 1 2.100787465179241 -15.27941144379645 19.71715551997593 0 0 -1
471 1 -11.214322866143634 -10.630273394237609 -19.9378979599478 0 0 0
142 1 -3.8425275230037563 -12.70751628688875 -16.546555455256087 0 0 0
887 1 -3.9516218433921155 -12.50234934497007 -17.653860218951234 0 0 0
211 1 7.365857483024369 -12.8834060271507 -17.86467881312633 0 0 0
192 1 -11.608230851171044 -9.58670321457597 -19.950278112237285 0 0 0
109 1 15.430030087800693 -9.398717448871338 -18.430534027769358 0 0 0
497 1 15.620218839040918 -10.495907195252459 -18.54914740966774 0 0 0
607 1 16.475975677735075 -9.784280502292168 -18.334837072229863 0 0 0
63 1 -15.350593619638731 -7.100410755739996 -18.752434559190053 0 0 0
647 1 -10.78803925816176 -8.829148737741406 -19.913677742591148 0 0 0
1096 2 1.842830867280901 -4.981298228011494 -18.235117333427034 0 0 0
653 1 9.792935431210587 -4.728460951090335 -17.74743880919664 0 0 0
977 1 16.826236928858556 -5.234263262161255 -18.99034547000354 0 0 0
175 1 -19.000950465831714 -3.9836744248241134 -17.644860556196527 0 0 0
422 1 -18.597022521927816 -4.826973459093796 -18.265872255925153 0 0 0
430 1 -11.673740335378866 -3.2654803230172385 -16.260870733669595 0 0 0
783 1 -18.590538659190578 -0.35608412743415263 -18.288285027001333 0 0 0
586 1 -13.933713830620714 -0.8636649707968044 -19.586850598472317 0 0 0
32 1 16.639188177851757 -0.44493642426775337 19.849730579269437 0 0 -1
128 1 15.621153126521973 0.0173990773899486 19.782627905350783 0 0 -1
490 1 -18.8569389037585 3.7582950504397745 19.808020229057743 0 0 -1
1098 2 7.17870775514688 3.6607146239575328 -17.593180180042257 0 0 0
1040 2 -3.2384412336843256 4.45849893400478 19.94585906099806 0 0 -1
598 1 8.240075303904836 4.228064264847844 -16.063349395965513 0 0 0
921 1 12.56818155015086 5.389186554555586 19.803957648665417 0 0 -1
76 1 14.003007590341495 8.156794541824079 -16.947732954088004 0 0 0
561 1 7.195142822885238 10.517202924489503 19.86679862815363 0 0 -1
244 1 8.011943437923405 11.265951112973301 -19.951971030235878 0 0 0
492 1 15.08530508306621 8.004434721457837 -17.09014863804714 0 0 0
402 1 -8.087293574424182 12.70214119454798 -19.076017836130188 0 0 0
915 1 6.9367787853469505 11.58935932884543 -19.915185102125864 0 0 0
575 1 10.449178456855323 12.096916365272156 19.360290341706687 0 0 -1
562 1 14.165109530444568 12.874887597336517 -17.802954196600634 0 0 0
91 1 17.43754514097878 12.172278395175942 -19.788732358839532 0 0 0
133 1 -17.328621290338827 16.116769802292712 -19.519775908863892 0 0 0
567 1 -8.750949446567768 13.601589410075084 -18.97459090280725 0 0 0
104 1 14.633726783033183 15.307163192624627 -17.655091780334093 0 0 0
25 1 -17.657205130259428 16.97044594946047 19.833749617777507 0 0 -1
77 1 -16.820302455922256 17.110753970323074 -19.42902714831725 0 0 0
564 1 -2.186542635330019 16.542622956894636 19.9955573164804 0 0 -1
732 1 -17.875467932357576 16.981374803239998 -19.063612595714883 0 0 0
901 1 -17.57334628773547 17.924952181334266 -19.58613005906875 0 0 0
760 1 -8.371029737035768 19.727150436727218 -19.056437190266674 0 0 0
734 1 -2.2763174380818176 17.633774389806927 19.74903748968146 0 0 -1
960 1 4.822829607327287 18.056320711834356 19.9990773341402 0 0 -1
20 1 8.56928458275612 -18.6239237504984 -17.230828036748107 0 0 0
322 1 9.14849120315812 -19.35847585696274 -17.852006165800955 0 0 0
193 1 16.6889054842903 -18.654098099752318 -16.813756236206736 0 0 0
489 1 18.851833144097565 -18.914448827005806 -16.397431260235265 0 0 0
498 1 -3.909621477372704 -14.580362655695128 -16.884974619121756 0 0 0
810 1 3.861420886027474 -15.439204275256415 -17.044732431976538 0 0 0
202 1 7.487113930689049 -15.798188653039695 -17.523274986380684 0 0 0
979 1 17.392362282358352 -17.79519108898723 -16.6508344227425 0 0 0
144 1 -19.353459634524782 -15.16476490284592 -15.710580882644898 0 0 0
437 1 -6.660291354001567 -14.773340046969665 -16.089644629627273 0 0 0
270 1 -4.024764502622442 -13.555628260333014 -17.28229693835528 0 0 0
347 1 -3.393278377369274 -13.721994848403055 -16.38805804378395 0 0 0
382 1 3.7863939586384054 -14.455253497340882 -16.50976476201258 0 0 0
60 1 13.982749694775036 -14.906306640892245 -16.63306467333207 0 0 0
500 1 -16.012939348547835 -10.09896374887765 -18.93275753890689 0 0 0
659 1 -2.077599783022164 -13.324105075434975 -16.89263917837431 0 0 0
945 1 15.724839388761437 -10.023700732284976 -17.539877786094593 0 0 0
929 1 -16.443876236567 -10.97863347249435 -18.40213876354722 0 0 0
982 1 -15.32687840514983 -10.788864085177282 -18.3902696027793 0 0 0
1101 2 -2.654063879706608 -11.195448735956095 -17.05980460816841 0 0 0
280 1 14.715783457004061 -10.141879464812193 -18.004486830891445 0 0 0
1148 2 4.255714856381182 -6.790106812312268 -16.73662183686156 0 0 0
593 1 -18.969048797585305 -5.024345687422509 -17.22541224930139 0 0 0
526 1 -18.01574723984991 -4.452727908248274 -17.381590059165042 0 0 0
1074 2 -1.2693674830512272 -5.194515724768022 -16.965038006249515 0 0 0
649 1 -11.539129804828317 -4.305993466855529 -15.862119129091486 0 0 0
1076 2 4.099396584811031 -3.4610873476973385 -16.251535345488282 0 0 0
246 1 11.686378862523094 -3.024492126880153 -16.109211270754503 0 0 0
930 1 -18.74992915879446 0.7540128039348369 -18.23775864791833 0 0 0
1091 2 6.803194933573774 0.3239159264714497 -17.32770736738461 0 0 0
946 1 17.500851140755582 1.8545488039044062 -15.089311367402024 0 0 0
70 1 14.383709872031648 7.121002437476159 -17.08011186418287 0 0 0
99 1 14.079646851306228 7.443974707937564 -16.062359706155874 0 0 0
686 1 13.287629337892366 7.3190394481232355 -16.83586390832199 0 0 0
110 1 -8.470096038402525 10.077563370782107 -15.735085033667993 0 0 0
592 1 -8.191857137287112 13.213269777755052 -18.081900886037825 0 0 0
902 1 -7.413001209119815 10.374063224657068 -15.503892377444787 0 0 0
889 1 -6.415278844040021 14.412145024288554 -16.617372653766356 0 0 0
302 1 17.71809847480718 11.05573641722082 -16.24054861931059 0 0 0
119 1 -11.650865923569738 13.370629431611912 -17.054872433105775 0 0 0
877 1 -12.65933381849946 13.449432184184074 -16.56821642750623 0 0 0
506 1 -6.716676121176733 15.49157393941904 -16.568931067339612 0 0 0
568 1 -5.632938985640151 15.207178408646783 -16.55656193332877 0 0 0
730 1 -2.645281101962886 15.741070973896523 -16.397983372443573 0 0 0
389 1 2.797963415111245 15.140215352183153 -16.292124340832686 0 0 0
65 1 -11.864757578934297 17.326738034814117 -16.06356171250784 0 0 0
998 1 -6.2921825347023645 14.983060015955694 -15.665219438776274 0 0 0
457 1 2.03551476033293 15.85252010353922 -15.87832477345727 0 0 0
748 1 7.178643569309722 17.195861703644848 -15.795246937603483 0 0 0
881 1 14.747294396178509 16.013325317125066 -16.789727389527727 0 0 0
505 1 -2.4660239919244584 17.268709763255757 -17.200126082420905 0 0 0
518 1 11.378883932487907 19.06571763746889 -15.824755784671504 0 0 0
993 1 12.319208984039214 19.089724967352804 -15.212185563932339 0 0 0
909 1 18.931289453094468 -18.65903837172403 -15.30781499608943 -1 0 0
555 1 -14.276584184827474 19.785974151758676 -13.876877997143039 0 -1 0
670 1 -4.148464170013312 -18.901681541437203 -14.200707610463972 0 0 0
507 1 1.0287090926258633 -17.975100256994033 -14.313419131513077 0 0 0
899 1 11.636959163797108 19.98092425069712 -15.228387223749722 0 -1 0
926 1 18.20308299559681 -18.118982436908897 -15.95718555945313 0 0 0
436 1 1.5439783397737021 -17.14166152923971 -13.765880511945628 0 0 0
530 1 17.17128739773638 -18.51256145124647 -15.8167698649926 0 0 0
333 1 -7.119891401721024 -14.742291900714479 -15.06574385888636 0 0 0
709 1 -3.0426489344674508 -13.027671224686713 -17.2540835119566 0 0 0
74 1 7.3003476357956805 -13.225308565954338 -14.100379975567908 0 0 0
814 1 10.980703830272576 -15.086048833100161 -12.964079556933404 0 0 0
336 1 -10.19337150805522 -11.825661935681635 -13.6303273045386 0 0 0
454 1 -2.781152392017662 -12.844756071834773 -16.1751221929412 0 0 0
223 1 -18.76025857413793 -10.933638075426785 -13.277110493171303 0 0 0
306 1 -18.14789926856707 -10.136812960415428 -12.777022816032446 0 0 0
459 1 -3.3048357099866026 -9.900023263635028 -15.771027442419108 0 0 0
882 1 7.720566702873774 -9.95967415772733 -14.63404201969225 0 0 0
1139 2 -2.6737857653499257 -8.061903453489482 -15.886863779342757 0 0 0
1085 2 6.552747949115262 -8.427427440166143 -14.896606903178055 0 0 0
816 1 10.813453088883902 -6.540175765669159 -14.795897060228935 0 0 0
888 1 13.219337270133297 -5.513664257331954 -13.768086628507277 0 0 0
282 1 17.034220278866485 -4.538687403396323 -15.301765858681309 0 0 0
360 1 -12.397678620738423 -3.675800455947081 -15.507611494812005 0 0 0
247 1 -9.261341292390052 -2.8872915992165815 -13.286807993094854 0 0 0
1103 2 -10.829752022896761 -3.0945945625210314 -14.516485356453735 0 0 0
1069 2 -7.971410252734374 -4.3397673265773165 -13.5496113260336 0 0 0
388 1 12.635364433707418 -4.697818025427148 -14.271578719833164 0 0 0
301 1 -16.98451721993919 -0.6242424765298523 -13.525288417349005 0 0 0
1052 2 2.17865014534736 -1.0387367810251678 -14.91475832592984 0 0 0
795 1 11.506018126474562 -2.368879285457976 -15.219628696509425 0 0 0
911 1 10.923928997709204 -1.4662205674918736 -15.536594213450343 0 0 0
906 1 15.213865567433228 -1.2400807899639714 -14.605968105577595 0 0 0
478 1 -16.272811393027407 0.16859067584458562 -13.179993111236039 0 0 0
1009 2 2.296585151488167 2.217505112818231 -14.059207894547605 0 0 0
644 1 17.042429512655673 1.7132615634292212 -14.074502110091663 0 0 0
924 1 18.147938900299117 1.5781878678773604 -14.214793913008194 0 0 0
606 1 -12.56115000165643 3.988571009833893 -15.240814252517323 0 0 0
1111 2 10.083676648605515 3.62365104711292 -15.904742626757566 0 0 0
277 1 -19.737123601420375 6.76961132873215 -13.192597117854588 0 0 0
676 1 -16.47293446205106 6.1880554606751526 -13.85212586372558 0 0 0
1118 2 6.393792474905732 5.933814042612226 -11.414997987859305 0 0 0
1138 2 7.3576489092468735 5.028645128167568 -14.523322643096545 0 0 0
853 1 -7.771752311558023 9.34721841327133 -15.251150402375421 0 0 0
585 1 12.334754072862758 7.770404982404441 -16.46080342026038 0 0 0
335 1 13.01460642674686 7.204581313627269 -15.761053228354005 0 0 0
782 1 13.286773584169763 8.223062029952192 -16.11641862705043 0 0 0
831 1 -8.842246180880124 9.400275679375289 -14.924837900305173 0 0 0
401 1 -8.149535468288647 10.244544314020633 -14.674601055472209 0 0 0
300 1 2.6866631277415527 11.062758043700537 -13.908653086534361 0 0 0
1062 2 3.2078635209193793 9.397295954155913 -14.759807733745038 0 0 0
634 1 4.566563748290285 10.77762554650371 -14.895829657193438 0 0 0
525 1 17.89795617784118 10.786753825719769 -15.165715771219384 0 0 0
231 1 18.268116192901672 11.766888333122113 -15.56849100543583 -1 0 0
200 1 3.7192881063204806 11.223801241843924 -14.31345254792098 0 0 0
984 1 8.04910147452065 13.219887458071568 -14.797168036147205 0 0 0
578 1 17.167526318782308 11.598143037453083 -15.426548237898002 0 0 0
224 1 -5.23594528349197 15.315416061998066 -15.518363177216255 0 0 0
811 1 9.085341008644471 13.600801489859963 -14.999734514618916 0 0 0
910 1 -17.64110988578807 16.186806369141813 -13.466514077894415 0 0 0
134 1 -6.002262466899724 16.03894187227844 -15.902866273502891 0 0 0
589 1 6.797131705067057 17.67165949560761 -13.07646520225821 0 0 0
237 1 15.731400917512529 17.497545223835527 -13.293254225227908 0 0 0
692 1 -14.75143054217617 19.249161638657995 -14.725812302726856 0 0 0
787 1 -14.478281973385318 18.69008126019385 -13.79243231574834 0 0 0
722 1 -13.679937332395388 19.046655535044664 -14.490141838162812 0 0 0
943 1 -13.18033350115921 19.946811007917262 -14.051586177273771 0 0 0
762 1 18.033424960531203 -19.20324096755677 -15.686555014099575 0 1 0
746 1 0.91855844079994 -17.882472809608203 -13.20022191637643 0 0 0
646 1 -17.004363431273767 -17.312350741056743 -12.091666272883948 0 0 0
180 1 10.838974807058749 -15.846229839775969 -12.150471684509348 0 0 0
327 1 19.609634598132136 -16.432012341540943 -13.219692779565056 0 0 0
594 1 -11.919766791127515 -15.520458480119919 -12.345675375473535 0 0 0
981 1 -5.637696824934253 -14.469146498350689 -12.847179906745708 0 0 0
117 1 -18.44555016563961 -11.056549010666059 -12.2066588376073 0 0 0
376 1 4.883121354182752 -11.263206857885491 -11.858147535158919 0 0 0
312 1 -15.288616299803053 -10.372534715192051 -12.265697248290232 0 0 0
173 1 -10.223436117392575 -10.801713080434412 -13.171485265614548 0 0 0
432 1 -1.603698569202139 -10.344616408161848 -11.62657700979086 0 0 0
245 1 2.074399617842331 -10.159407954968938 -13.141988671150491 0 0 0
71 1 -19.219409957117197 -10.290724002376479 -12.479837792950214 1 0 0
574 1 -14.363268187331057 -5.999010169286634 -10.73885655618179 0 0 0
870 1 -9.808100924415031 -3.817344960777068 -13.009917597677054 0 0 0
1137 2 2.8007146417839004 -5.470789844247912 -12.262031922342853 0 0 0
983 1 10.9277620417448 -6.297830907856859 -13.705966306046777 0 0 0
860 1 -17.751447555531623 -0.8021825669336186 -12.72875352156066 0 0 0
467 1 -16.696622212998832 -0.5581826598019509 -12.440165354092837 0 0 0
935 1 -9.980089514628146 -2.044846799930212 -13.144527788667498 0 0 0
1130 2 6.139236140610177 -0.8933638191656279 -12.114827663820025 0 0 0
362 1 -17.35463844054033 0.23134540347186172 -12.897393724225362 0 0 0
216 1 -12.552709054156407 1.4866854129120302 -12.198974050034 0 0 0
1064 2 -7.457261137718664 0.8483436896447039 -10.452237009830872 0 0 0
1083 2 -5.448804744562335 0.428106963603695 -13.14351702292325 0 0 0
1057 2 0.2918870488944834 1.2529424041453812 -11.531430683958426 0 0 0
873 1 14.195281569551435 0.450615726865818 -13.479900540827252 0 0 0
1048 2 -2.488851922026555 3.1343224379537045 -11.272419297749735 0 0 0
1150 2 3.3056581177744304 4.907594429268746 -12.29832943855055 0 0 0
642 1 -8.026710932324152 9.257154524984804 -14.167700806118985 0 0 0
728 1 6.5109338829638945 7.799518909173745 -10.995940205211951 0 0 0
820 1 19.962052128905494 7.297303537697751 -12.248651935611509 0 0 0
167 1 -16.417572086735515 10.036774125823941 -12.903395146600648 0 0 0
920 1 -2.083092620976017 9.826920908651767 -11.119164349347606 0 0 0
857 1 -16.987230575329267 11.00329952158109 -12.93968202132762 0 0 0
611 1 -5.868886551693241 13.146250160892972 -11.909805804189297 0 0 0
466 1 13.489072041296184 13.412824041250161 -12.295315767635346 0 0 0
781 1 -17.818108549144817 13.376722376000378 -9.954890114216427 0 0 0
263 1 -9.053092390382886 15.128996654980133 -9.938346610494929 0 0 0
132 1 1.8946903644167874 15.54813663733691 -11.601481316854203 0 0 0
627 1 0.8788138167172413 15.586479377067695 -12.077348699902437 0 0 0
363 1 14.569889001568257 13.56854371818602 -12.035481786762235 0 0 0
569 1 13.808952423686527 14.346968970856143 -11.761502123450475 0 0 0
261 1 -19.911855778044078 13.546981710913 -12.4703396830666 1 0 0
92 1 -18.62881301576268 17.398347154280586 -11.465459873896663 0 0 0
482 1 -13.527869848122368 19.112406142964062 -13.382519488389567 0 0 0
695 1 1.374158744533655 16.53364590429988 -11.734664308825545 0 0 0
537 1 7.8271765097246275 17.96858220622286 -12.77819881952113 0 0 0
742 1 8.300709290642699 18.9813227385242 -12.792018089919004 0 0 0
974 1 7.239485996446707 18.8582762190469 -12.446659696941463 0 0 0
400 1 15.301582093119883 18.099336460437584 -12.448832375282585 0 0 0
305 1 -17.23789526272837 -18.01027544334317 -11.24414919726104 0 0 0
544 1 -16.187333261135198 -17.646262830554075 -11.398170031229201 0 0 0
711 1 -10.493175083857055 19.89412070371404 -10.62512393260672 0 -1 0
308 1 3.769195355667377 -18.17069634718246 -10.217278019879895 0 0 0
393 1 7.740472398820235 -17.85534108916097 -9.233150837517645 0 0 0
337 1 8.610357217682099 -18.11362753687974 -8.573269314555933 0 0 0
148 1 0.7603286543997434 -17.083620676960358 -8.053066129227053 0 0 0
241 1 17.630941904435634 -15.125969864048008 -9.243789324408127 0 0 0
907 1 7.741265807383965 -14.133619275423019 -9.680973137702521 0 0 0
443 1 12.967717768213987 -14.846217609508109 -9.905378848237136 0 0 0
528 1 -12.292146065511847 -11.88805449928588 -10.410354062376603 0 0 0
81 1 -6.897988828337199 -9.797683429088925 -8.636695124106083 0 0 0
367 1 -7.659594377877463 -9.955089112749068 -7.830277460828404 0 0 0
736 1 13.836462813108035 -8.780979309176047 -10.039380623342584 0 0 0
80 1 -5.589783077892054 -6.6463267597693925 -7.525830623523347 0 0 0
21 1 14.334335723494675 -7.7899823136672355 -9.865808210752563 0 0 0
595 1 -13.968701950799927 -5.7823871863903085 -9.710608630803812 0 0 0
1024 2 -5.944369670610288 -5.492901381611589 -9.153321888497704 0 0 0
191 1 9.271763888148229 -5.504440190270716 -10.607833067871846 0 0 0
435 1 15.39589594394264 -4.833566117085821 -9.91054654974783 0 0 0
509 1 -15.103984293285613 -2.4942397520989097 -10.608079444006245 0 0 0
1077 2 -9.80949140334197 -2.753661873379774 -11.361909678198595 0 0 0
1078 2 3.345564345802757 -2.401695567142575 -10.981674935483763 0 0 0
801 1 -15.87129764201914 -1.8220835075135147 -10.139647831458731 0 0 0
84 1 -15.250266115504198 -1.451117103917097 -10.997615439835432 0 0 0
326 1 -14.778088753771215 -1.6151312715990003 -9.991571134125897 0 0 0
1095 2 -9.173813324611132 -1.23448028593481 -8.377508547248066 0 0 0
228 1 9.252009586165649 -0.10708114417538801 -8.220109801859653 0 0 0
694 1 19.199405823197814 -0.5171037156436756 -9.128779693639292 0 0 0
66 1 -19.811655742521847 -0.17436112307811494 -9.527518339931296 0 0 0
273 1 -19.5408845387722 0.8916838691096797 -9.315936994804492 0 0 0
1102 2 8.677128821170003 0.21874920037510615 -10.180502383550865 0 0 0
1027 2 4.97506169399568 1.9850484188683633 -8.734670981828872 0 0 0
1142 2 2.8693860214454308 4.616929439836826 -8.971446018883741 0 0 0
1134 2 7.830991374375278 3.465569797314233 -9.587566711573121 0 0 0
797 1 8.248556592328226 1.6640221661580858 -8.925566485577903 0 0 0
875 1 14.543950343363333 3.345145739181355 -8.002657127978342 0 0 0
276 1 18.054109988651753 6.080507563496553 -8.81225264064154 0 0 0
364 1 -17.863952370884547 6.708707511823636 -9.196354985993935 0 0 0
958 1 -7.608362321402405 9.129060543038952 -9.48019395938066 0 0 0
1065 2 -0.5949802461542164 8.935716768649074 -10.242042685034548 0 0 0
398 1 6.5792105075486855 8.23919022182557 -9.96992528081805 0 0 0
937 1 6.009323097980832 7.288176224175055 -10.116572507951048 0 0 0
452 1 7.124021668205064 7.287831009552457 -10.212138856543126 0 0 0
475 1 -18.84072933686084 13.016727818650251 -9.679744505490653 0 0 0
346 1 -7.424659652283548 8.680938903891521 -8.469861118163408 0 0 0
554 1 -6.7960500835797575 9.534521247976429 -8.82098576752055 0 0 0
69 1 1.0336227686590411 9.983558826855154 -10.411111420532581 0 0 0
409 1 15.23819213775032 9.9617547149681 -9.072164748472336 0 0 0
126 1 15.80366975397357 10.68839929726329 -9.714166633558003 0 0 0
405 1 11.518092328023233 13.29483800233512 -8.77437871651105 0 0 0
862 1 -19.935335902643633 11.118202834740979 -8.405638419779912 1 0 0
472 1 -18.46645310615203 13.978737995854992 -9.261739409407664 0 0 0
959 1 -17.75740854499991 14.491825480632556 -9.942635969964478 0 0 0
67 1 -16.830377281335792 14.806157615035197 -9.40664954919213 0 0 0
855 1 -16.82438499387901 13.88123414851962 -10.04515105041993 0 0 0
871 1 -17.367136968432625 13.890937022967467 -9.070967397821676 0 0 0
717 1 -8.44731871249189 14.215169443209911 -9.700869638526012 0 0 0
750 1 -9.198593426555176 14.598303019642394 -8.96824163002941 0 0 0
349 1 -8.250530974652932 15.180650753477089 -9.163959872658667 0 0 0
989 1 -2.921889437983447 14.88276550459039 -8.422596821421571 0 0 0
154 1 6.484920029891984 15.087081312005175 -9.75238337634063 0 0 0
758 1 7.450845074720948 14.787066838140676 -9.261892602468219 0 0 0
540 1 -9.353047649781756 18.565737585720413 -10.720618549815443 0 0 0
288 1 7.081883083277161 15.845405495065158 -9.17610543210177 0 0 0
116 1 7.460399519539667 15.460081419397364 -10.157393110226316 0 0 0
560 1 11.13923017860306 14.05763543505902 -9.49665537165469 0 0 0
197 1 -15.423092486676767 17.733531137169294 -8.921959854086559 0 0 0
942 1 -9.405674991878522 19.661585326306756 -10.49912667602131 0 0 0
434 1 7.018767123522159 17.862678046305884 -12.000282629253554 0 0 0
533 1 -14.10523226145273 -19.12455529125607 -7.398704446286715 0 0 0
837 1 -10.159319483311286 -17.47133103216134 -7.928964693391686 0 0 0
137 1 -1.3353003379148836 -18.886860298025503 -8.724437535983842 0 0 0
210 1 2.30373747672911 -18.054885636755902 -7.95948215816618 0 0 0
759 1 8.249748003396181 -17.058396444594255 -8.632515928868251 0 0 0
832 1 -9.221157695846202 -16.855819265947176 -7.8992584966587955 0 0 0
291 1 1.4050776319873894 -17.827095986031328 -8.588033894673444 0 0 0
45 1 1.8750697839979047 -17.020055455646535 -7.962364969916997 0 0 0
204 1 7.610756234300508 -16.793857005890136 -7.755792679021598 0 0 0
413 1 7.134319454353444 -17.054967348212877 -8.737450868309537 0 0 0
447 1 7.625080712443125 -17.849800021480302 -8.118765955083976 0 0 0
990 1 -10.223807600245395 -16.35184154397571 -7.876788774135172 0 0 0
10 1 -5.139264516552532 -15.74854166916765 -7.006443773735163 0 0 0
449 1 -4.448570812222702 -15.506045479796269 -6.1557626056315415 0 0 0
22 1 17.845263649375827 -15.149564841604581 -8.140429021944882 0 0 0
55 1 17.132276343984845 -14.386084749303361 -8.56136469796609 0 0 0
310 1 18.23657081469378 -14.306967520027694 -8.768032947382846 0 0 0
417 1 -18.002328775971257 -11.77492896423359 -8.806653679620768 0 0 0
354 1 -13.548257204971346 -12.339834358869584 -6.824046935648015 0 0 0
633 1 -6.571966665287431 -10.137431371525917 -7.6221055191757525 0 0 0
62 1 3.469182065459321 -9.77004372453167 -7.663787796388361 0 0 0
481 1 7.240407597950334 -8.999985054573996 -7.106400883124146 0 0 0
1005 2 -6.868179734252987 -8.205378930504398 -7.532394149422416 0 0 0
43 1 11.044820134270319 -8.554841224883747 -8.540810694630341 0 0 0
130 1 -16.973675704176788 -5.072373803615667 -6.936219118139434 0 0 0
991 1 -17.59446568142299 -4.20867298066498 -7.295180121691441 0 0 0
849 1 -9.343626818354682 -2.543614123165706 -6.964200824351124 0 0 0
1059 2 2.856834985802539 -3.362618971688975 -6.50333276100753 0 0 0
1015 2 -2.7917464882096956 -0.883227340357017 -8.803818760814062 0 0 0
1113 2 4.972569369489822 -1.3459638398046818 -8.224750894163256 0 0 0
1092 2 8.283432348845679 -1.6224492934503747 -7.516795481048442 0 0 0
970 1 8.879202675530339 0.00024363877846188113 -6.4130102248013365 0 0 0
605 1 -12.725036775257164 1.6701274909052146 -7.2407281201688924 0 0 0
1082 2 6.9392442716549505 3.257159850996574 -6.273808723309379 0 0 0
1054 2 9.476759913512707 1.6243586440774525 -7.410201601491344 0 0 0
1000 1 19.703865258680185 0.37253047397760486 -8.672099498456788 0 0 0
1144 2 -4.354633490833642 4.281891457375488 -8.714843128611127 0 0 0
394 1 8.811820029111482 2.825231503254181 -6.051686073103757 0 0 0
96 1 15.22295108326996 4.232238413151345 -7.884801416613231 0 0 0
212 1 14.847559403741826 3.688186201892627 -6.980451205567886 0 0 0
391 1 -14.119018472907733 6.423117751628733 -7.26116877844805 0 0 0
678 1 8.389563273163997 1.8301251368528635 -5.758576029461403 0 0 0
573 1 18.752590834106627 6.4654034290074085 -8.022346816538654 0 0 0
222 1 -8.222023457013346 9.021313422197943 -7.765885829982424 0 0 0
768 1 17.66420362224788 6.738193840672496 -7.9904963354546945 0 0 0
164 1 -19.357520893660812 10.927045149163938 -7.4717650662221855 0 0 0
677 1 -19.274584425878697 11.886004430915598 -6.890257895737639 0 0 0
232 1 -7.866844204840429 9.71825982426305 -8.562891083402748 0 0 0
149 1 -8.473011383729043 8.817838104700273 -8.840458171927544 0 0 0
118 1 0.8514892282656258 9.842789345641103 -9.312503676282931 0 0 0
992 1 5.60140535175005 8.241432102838434 -10.526259582369734 0 0 0
541 1 -19.237458416577045 11.903697075044006 -8.007977278822667 0 0 0
513 1 10.766447093942446 13.074906226386364 -7.978343350844304 0 0 0
445 1 19.798920337922667 11.674198572155525 -7.475478360694779 0 0 0
100 1 -18.022321381032896 13.00034831649997 -8.920633733552275 0 0 0
293 1 -18.087279229773525 13.870983005869958 -8.22077095737913 0 0 0
285 1 -8.675634910159966 15.1240747658478 -8.13709110591944 0 0 0
779 1 -9.1137060558951 14.104455543413561 -7.972064329435428 0 0 0
672 1 -8.204979785960115 14.213983314355293 -8.61247907723343 0 0 0
865 1 -3.7396460656061064 15.449021836527166 -7.90245365419201 0 0 0
774 1 6.551205885532376 15.019812264842564 -8.636249726035697 0 0 0
14 1 10.79103227854798 14.093155283132004 -8.4361651580291 0 0 0
108 1 11.62445751058263 13.764963491839854 -7.762948740172995 0 0 0
704 1 11.850450738256896 14.360946273269441 -8.683609824592711 0 0 0
7 1 4.014369662007793 16.536557398457102 -7.342547721513495 0 0 0
184 1 3.154664141856815 16.807718387797877 -6.67357245052448 0 0 0
446 1 11.455783410407976 18.150347610826486 -8.623662574091592 0 0 0
789 1 15.823651639489313 -19.083064756473057 -4.316460474414755 0 0 0
880 1 -16.62830319902519 -16.59874301551542 -4.7711802304543625 0 0 0
299 1 -5.4535261951728 -15.961582805331112 -5.950331224581616 0 0 0
582 1 -4.646424015942135 -16.576049236797346 -6.430474663263141 0 0 0
491 1 1.3159372924458423 -17.860542249907724 -7.467981278321367 0 0 0
775 1 -16.379768883818354 -15.515230256242562 -4.9363127568791425 0 0 0
879 1 -13.116673206638922 -13.358241063510777 -6.63295611170405 0 0 0
268 1 -9.972080960457431 -15.472952887451815 -5.433683291117322 0 0 0
635 1 -13.302698735570278 -12.65771028583492 -5.775882062275899 0 0 0
932 1 2.109126587317422 -12.328290019231785 -6.138493258893826 0 0 0
57 1 2.3976720128871674 -11.841845466543038 -5.168955062253776 0 0 0
788 1 15.832529279858884 -11.794731722714518 -5.28633840741853 0 0 0
303 1 17.8438119810446 -14.107031120365367 -7.743073474256087 0 0 0
591 1 -9.932779340769455 -8.721336477818914 -4.440610449465027 0 0 0
287 1 -7.283996106893668 -9.946697692875263 -6.77681948657788 0 0 0
613 1 -6.184508616491305 -9.778175673469308 -6.635522194402509 0 0 0
778 1 6.169734036179254 -9.769415002335554 -5.8433355889536545 0 0 0
157 1 7.042210170109117 -9.936949331651634 -6.525519144195682 0 0 0
636 1 15.107049862295508 -10.995576924242698 -5.59450665973327 0 0 0
469 1 -16.592072606121192 -7.8135896378174685 -6.511885730122322 0 0 0
387 1 -11.00734856549413 -8.749703556917222 -4.768382910261626 0 0 0
410 1 6.1870996671300444 -9.284852356322256 -6.853032675461703 0 0 0
72 1 6.88589641972793 -8.932356853937636 -6.0460555000386424 0 0 0
1070 2 -5.868968780191649 -5.543588856605391 -5.861026404226012 0 0 0
1018 2 -2.591075014584538 -5.2195106244554585 -5.165420950644822 0 0 0
1136 2 -3.68917589618602 -7.315953682596861 -7.588430221209687 0 0 0
867 1 16.849646621857534 -5.685954659098885 -4.648530505066112 0 0 0
645 1 17.7233813294538 -4.978788028610002 -4.653587602708712 0 0 0
651 1 -9.753431831128363 -2.322820177872471 -5.946303813789109 0 0 0
1125 2 5.99380908537832 -2.8045582437933003 -5.3853525335670716 0 0 0
966 1 16.73951905034189 -4.659663420195992 -5.083467818804029 0 0 0
1051 2 -7.89165184397257 -2.855937024174481 -5.715464376911298 0 0 0
1106 2 10.516080557592835 -0.5693818399068548 -5.3712140843500045 0 0 0
531 1 9.65080446951931 -0.29007229958404324 -7.173235710825777 0 0 0
28 1 15.030756769883599 2.925531863841269 -5.008016799764559 0 0 0
411 1 -13.132399843257707 3.702246033732855 -4.694878164066491 0 0 0
125 1 14.858237974435028 3.620592590446803 -5.868292006338592 0 0 0
744 1 14.36242318667589 3.819311095396189 -4.88487073921438 0 0 0
262 1 -13.370149633518952 7.129633556370687 -6.813991143752892 0 0 0
517 1 -19.98229993717012 11.078991074409585 -6.5570320750851785 0 0 0
600 1 -9.711662439939552 9.789062699113282 -4.5970749442634125 0 0 0
840 1 -9.069637332521468 8.98672557248759 -5.049021207778302 0 0 0
532 1 9.693576166581725 8.498297642950858 -5.0580441558079094 0 0 0
584 1 -18.874904792366028 10.932786389610849 -6.465408538468069 0 0 0
650 1 -7.345388305346888 12.594659058131382 -6.499439117184921 0 0 0
725 1 -6.931437679213098 11.915687922886196 -5.705616401149478 0 0 0
933 1 8.19969304183515 14.174703143901773 -3.439713025189606 0 0 0
455 1 12.671061542766655 11.723622933171756 -5.698680524172503 0 0 0
26 1 13.652096984063634 11.710340604627449 -5.062311266250933 0 0 0
94 1 -8.127791809409905 14.377479136556877 -7.511939774691038 0 0 0
415 1 -3.3847557067939733 14.468175065677853 -7.487829131000787 0 0 0
916 1 7.209590976608401 14.671110263251782 -3.644669542963715 0 0 0
628 1 16.23197110745117 14.407647001691783 -5.197906248885496 0 0 0
923 1 4.209530875546995 16.957284047587486 -6.320366262325115 0 0 0
386 1 8.157473324659563 15.114442513420451 -4.043953941183667 0 0 0
973 1 11.072299372690544 16.073187962439683 -4.981583967854382 0 0 0
604 1 -18.005227384547837 19.796880510324623 -6.520079814047923 0 0 0
281 1 6.92660522876156 -19.795178981125364 -4.340737472627804 0 1 0
428 1 6.450606295819873 -19.250040166698593 -3.482683902490293 0 0 0
8 1 14.909283967468602 -18.858000216893203 -3.705560512651774 0 0 0
654 1 -18.08970880694859 -17.304752173490282 -3.8582556684983267 0 0 0
640 1 -0.09797392292076842 -17.075699779242058 -3.0645480425667233 0 0 0
29 1 0.9646512222190848 -17.407452768044326 -3.2085215105490708 0 0 0